! S-parameter export from FEKO
!   Filename:      SKALAoriginal_1antenna_SParameter1.s2p
!   Creation date: 2023-06-15 13:15:11
! 
! %Port labels%2
! %Port1
! %Port2
! 
# Hz S MA R  5.00000E+01
! 
!     FREQ          |S11|        <S11       |S21|        <S21       |S12|        <S12       |S22|        <S22
 5.0000000E+07  9.7808643E-01  -33.588  7.3623436E-04 -122.131  8.3820764E-04 -122.661  9.7836385E-01  -32.988
 5.1000000E+07  9.7128249E-01  -45.256  7.3632550E-04 -133.578  8.5582533E-04 -134.590  9.7176279E-01  -44.464
 5.2000000E+07  9.6184077E-01  -57.688  7.1028550E-04 -145.717  8.8002924E-04 -146.895  9.6261358E-01  -56.640
 5.3000000E+07  9.4862539E-01  -71.198  6.5374004E-04 -158.577  9.3303432E-04 -160.519  9.4982312E-01  -69.813
 5.4000000E+07  9.3010143E-01  -86.150  5.9162673E-04 -173.174  9.0468228E-04 -176.021  9.3185740E-01  -84.354
 5.5000000E+07  9.0442905E-01 -102.924  5.0432802E-04  170.606  9.3516181E-04  166.785  9.0679118E-01 -100.657
 5.6000000E+07  8.6971906E-01 -121.965  4.1319326E-04  151.329  9.7033396E-04  145.669  8.7255689E-01 -119.178
 5.7000000E+07  8.2520545E-01 -143.601  3.0918966E-04  129.586  9.7071779E-04  123.244  8.2794379E-01 -140.295
 5.8000000E+07  7.7273192E-01 -167.971  1.6097785E-04   99.345  9.0986282E-04   95.955  7.7414811E-01 -164.258
 5.9000000E+07  7.1817359E-01  165.276  1.4417803E-04   49.699  9.8613732E-04   67.861  7.1671191E-01  169.121
 6.0000000E+07  6.6991076E-01  137.033  1.6685222E-04    1.477  9.6184756E-04   37.816  6.6464708E-01  140.597
 6.1000000E+07  6.3432393E-01  108.763  2.2989475E-04  -37.211  9.8091169E-04    9.342  6.2588864E-01  111.666
 6.2000000E+07  6.1226047E-01   81.813  3.0885093E-04  -54.675  9.4346369E-04  -18.757  6.0266901E-01   83.870
 6.3000000E+07  5.9972303E-01   57.044  3.9549520E-04  -68.515  9.9152880E-04  -40.087  5.9114868E-01   58.306
 6.4000000E+07  5.9128605E-01   34.570  4.6454131E-04  -86.644  9.6469340E-04  -61.693  5.8512540E-01   35.258
 6.5000000E+07  5.8258345E-01   14.052  5.5605845E-04  -96.784  1.0113155E-03  -78.786  5.7959029E-01   14.419
 6.6000000E+07  5.7079032E-01   -5.057  6.1470041E-04 -108.515  1.0187545E-03  -94.866  5.7121612E-01   -4.774
 6.7000000E+07  5.5445345E-01  -23.338  6.6018445E-04 -120.552  1.0304728E-03 -109.692  5.5831383E-01  -22.932
 6.8000000E+07  5.3303105E-01  -41.325  7.0005975E-04 -130.476  1.0176783E-03 -122.114  5.4012674E-01  -40.601
 6.9000000E+07  5.0679906E-01  -59.515  7.0618826E-04 -142.281  1.0096027E-03 -135.605  5.1672845E-01  -58.288
 7.0000000E+07  4.7686765E-01  -78.356  6.8722591E-04 -151.025  9.6407713E-04 -146.194  4.8888199E-01  -76.439
 7.1000000E+07  4.4524440E-01  -98.243  6.8648507E-04 -162.425  9.6240107E-04 -158.892  4.5813110E-01  -95.475
 7.2000000E+07  4.1493484E-01 -119.470  6.5661488E-04 -171.417  8.9720571E-04 -168.072  4.2702581E-01 -115.727
 7.3000000E+07  3.8977231E-01 -142.075  6.1208779E-04 -177.979  8.7262099E-04  179.539  3.9890207E-01 -137.376
 7.4000000E+07  3.7338104E-01 -165.675  5.6380908E-04  173.318  8.0036631E-04  168.128  3.7759520E-01 -160.260
 7.5000000E+07  3.6780258E-01  170.508  5.0756815E-04  164.970  7.2200232E-04  158.958  3.6594551E-01  176.139
 7.6000000E+07  3.7257554E-01  147.540  4.5081824E-04  162.160  6.4181127E-04  150.635  3.6496983E-01  152.796
 7.7000000E+07  3.8492814E-01  126.148  3.9383940E-04  158.663  5.6145718E-04  143.830  3.7302922E-01  130.641
 7.8000000E+07  4.0118777E-01  106.646  3.4703185E-04  162.765  4.5890604E-04  138.802  3.8691238E-01  110.196
 7.9000000E+07  4.1774890E-01   88.992  2.5455724E-04  160.311  3.4972719E-04  127.539  4.0292196E-01   91.623
 8.0000000E+07  4.3211678E-01   72.904  2.5411945E-04  179.583  2.4358265E-04  135.534  4.1812609E-01   74.718
 8.1000000E+07  4.4250571E-01   58.067  2.8207698E-04 -166.423  1.8149552E-04  158.863  4.3032117E-01   59.206
 8.2000000E+07  4.4772731E-01   44.201  3.4702477E-04 -156.343  1.9652589E-04 -164.487  4.3808216E-01   44.800
 8.3000000E+07  4.4720587E-01   31.014  4.5490162E-04 -156.136  3.1441502E-04 -153.456  4.4053358E-01   31.200
 8.4000000E+07  4.4048848E-01   18.266  5.5712370E-04 -161.881  4.4910001E-04 -156.264  4.3715572E-01   18.163
 8.5000000E+07  4.2737586E-01    5.732  6.9401821E-04 -168.760  6.1911490E-04 -162.926  4.2767328E-01    5.444
 8.6000000E+07  4.0776095E-01   -6.784  8.1100461E-04 -177.779  7.7394896E-04 -172.217  4.1191976E-01   -7.144
 8.7000000E+07  3.8165349E-01  -19.502  9.2807773E-04  171.523  9.4078823E-04  177.772  3.8988534E-01  -19.814
 8.8000000E+07  3.4941347E-01  -32.650  1.0302001E-03  159.720  1.0930989E-03  166.140  3.6179683E-01  -32.768
 8.9000000E+07  3.1167672E-01  -46.507  1.1175842E-03  145.997  1.2542978E-03  151.865  3.2815518E-01  -46.235
 9.0000000E+07  2.6972456E-01  -61.494  1.1791584E-03  132.604  1.3810665E-03  139.083  2.8985197E-01  -60.536
 9.1000000E+07  2.2551937E-01  -78.244  1.2013940E-03  118.912  1.4903817E-03  125.513  2.4846223E-01  -76.099
 9.2000000E+07  1.8230305E-01  -97.893  1.1969239E-03  104.482  1.5697824E-03  111.378  2.0622530E-01  -93.648
 9.3000000E+07  1.4474900E-01 -122.198  1.1507228E-03   90.424  1.6070681E-03   97.633  1.6649093E-01 -114.351
 9.4000000E+07  1.1960517E-01 -152.675  1.0834804E-03   76.250  1.6155054E-03   83.767  1.3408505E-01 -139.743
 9.5000000E+07  1.1301894E-01  173.327  9.6850649E-04   62.633  1.5687820E-03   70.352  1.1481580E-01 -170.298
 9.6000000E+07  1.2288451E-01  143.080  8.5046725E-04   50.337  1.5298971E-03   58.584  1.1189199E-01  157.786
 9.7000000E+07  1.4044093E-01  119.803  7.3390082E-04   39.140  1.4568896E-03   47.440  1.2134139E-01  130.379
 9.8000000E+07  1.5834744E-01  102.233  6.1186223E-04   27.641  1.3734460E-03   37.091  1.3562524E-01  109.186
 9.9000000E+07  1.7293232E-01   88.579  5.2118532E-04   18.797  1.3121478E-03   27.488  1.4926682E-01   92.989
 1.0000000E+08  1.8313577E-01   77.750  4.2502801E-04   10.568  1.2461845E-03   18.135  1.5985904E-01   80.397
 1.0100000E+08  1.8891184E-01   69.212  3.3780774E-04    3.404  1.1758396E-03    9.273  1.6671579E-01   70.605
 1.0200000E+08  1.9144039E-01   62.640  2.5545035E-04   -2.120  1.1657060E-03    1.336  1.7049657E-01   63.123
 1.0300000E+08  1.9233499E-01   57.789  1.5472771E-04   -7.627  1.1208730E-03   -8.123  1.7258236E-01   57.584
 1.0400000E+08  1.9342822E-01   54.301  5.7519783E-05   -8.610  1.0784048E-03  -16.509  1.7472205E-01   53.586
 1.0500000E+08  1.9598294E-01   51.631  7.5626630E-05  108.452  1.0269821E-03  -25.617  1.7811390E-01   50.523
 1.0600000E+08  2.0042359E-01   49.135  2.0414712E-04  117.563  9.8290683E-04  -33.109  1.8322385E-01   47.722
 1.0700000E+08  2.0594024E-01   46.275  3.4055291E-04  105.516  9.4078242E-04  -44.456  1.8956048E-01   44.566
 1.0800000E+08  2.1080296E-01   42.775  4.8981140E-04   92.547  8.8557846E-04  -55.120  1.9537817E-01   40.733
 1.0900000E+08  2.1312732E-01   38.649  6.3509721E-04   80.422  7.9878645E-04  -65.841  1.9887744E-01   36.203
 1.1000000E+08  2.1109028E-01   34.163  7.8649202E-04   66.560  7.1984992E-04  -79.207  1.9816901E-01   31.188
 1.1100000E+08  2.0361492E-01   29.723  9.2019039E-04   52.541  6.2206505E-04  -91.786  1.9212155E-01   26.103
 1.1200000E+08  1.9047814E-01   25.967  1.0488210E-03   38.864  4.9893343E-04 -107.620  1.8020572E-01   21.488
 1.1300000E+08  1.7257639E-01   23.796  1.1831844E-03   25.970  3.6382763E-04 -128.309  1.6287611E-01   18.219
 1.1400000E+08  1.5259320E-01   24.498  1.3236130E-03   11.562  2.2250361E-04 -164.545  1.4215909E-01   17.632
 1.1500000E+08  1.3564132E-01   29.555  1.4362173E-03   -2.604  1.9695743E-04  124.397  1.2237168E-01   21.636
 1.1600000E+08  1.2866556E-01   38.836  1.5369304E-03  -16.614  3.2744499E-04   75.829  1.1070813E-01   31.450
 1.1700000E+08  1.3643421E-01   48.609  1.6327607E-03  -30.758  5.2452464E-04   49.648  1.1406887E-01   43.753
 1.1800000E+08  1.5659184E-01   54.460  1.7102450E-03  -45.602  7.2868022E-04   28.855  1.3217456E-01   52.202
 1.1900000E+08  1.8243068E-01   55.583  1.7513287E-03  -60.132  9.1229787E-04   12.381  1.5793608E-01   54.717
 1.2000000E+08  2.0792026E-01   53.266  1.7744276E-03  -74.336  1.0884768E-03   -2.399  1.8453539E-01   52.879
 1.2100000E+08  2.2897963E-01   48.873  1.7753385E-03  -89.269  1.2290806E-03  -16.303  2.0751313E-01   48.501
 1.2200000E+08  2.4328587E-01   43.356  1.7522238E-03 -103.825  1.3603038E-03  -30.226  2.2424982E-01   42.746
 1.2300000E+08  2.4956993E-01   37.345  1.7191236E-03 -118.388  1.4583308E-03  -42.126  2.3327563E-01   36.347
 1.2400000E+08  2.4735988E-01   31.310  1.6471937E-03 -133.020  1.5366470E-03  -54.384  2.3404542E-01   29.815
 1.2500000E+08  2.3683919E-01   25.686  1.5642286E-03 -146.660  1.6181022E-03  -66.330  2.2649904E-01   23.537
 1.2600000E+08  2.1882193E-01   21.033  1.4679898E-03 -160.628  1.6633331E-03  -77.736  2.1123917E-01   18.018
 1.2700000E+08  1.9516744E-01   18.131  1.3745256E-03 -173.702  1.6899582E-03  -88.715  1.8957453E-01   13.937
 1.2800000E+08  1.6900666E-01   18.222  1.2758108E-03  173.211  1.7283382E-03 -102.467  1.6402328E-01   12.413
 1.2900000E+08  1.4563255E-01   22.895  1.1740046E-03  161.876  1.7280639E-03 -114.599  1.3860703E-01   15.089
 1.3000000E+08  1.3254882E-01   32.760  1.0928023E-03  149.884  1.7129407E-03 -128.094  1.2015743E-01   23.761
 1.3100000E+08  1.3589553E-01   44.548  1.0126192E-03  138.717  1.6478462E-03 -142.296  1.1646354E-01   36.877
 1.3200000E+08  1.5435313E-01   52.952  9.6970806E-04  128.084  1.5097578E-03 -155.689  1.2975276E-01   48.240
 1.3300000E+08  1.8090862E-01   56.296  9.1915126E-04  117.208  1.4588847E-03 -169.349  1.5398216E-01   53.803
 1.3400000E+08  2.0893978E-01   55.807  8.9736126E-04  107.950  1.3668393E-03  173.141  1.8155043E-01   54.512
 1.3500000E+08  2.3429518E-01   52.992  8.5459494E-04   97.848  1.2503613E-03  154.738  2.0767817E-01   52.194
 1.3600000E+08  2.5457939E-01   48.894  8.4691986E-04   87.928  1.1426017E-03  139.510  2.2950937E-01   48.255
 1.3700000E+08  2.6867023E-01   44.172  8.2978300E-04   78.439  1.0482258E-03  121.019  2.4564288E-01   43.465
 1.3800000E+08  2.7604654E-01   39.257  8.2020867E-04   68.628  1.0186024E-03  103.935  2.5534378E-01   38.364
 1.3900000E+08  2.7681263E-01   34.459  8.0288412E-04   60.774  1.0737596E-03   84.647  2.5862624E-01   33.298
 1.4000000E+08  2.7134533E-01   30.060  7.6797092E-04   53.886  1.0978295E-03   67.607  2.5562794E-01   28.536
 1.4100000E+08  2.6058099E-01   26.353  7.7433552E-04   47.742  1.2107174E-03   50.880  2.4735182E-01   24.392
 1.4200000E+08  2.4576394E-01   23.678  7.8842249E-04   44.728  1.3522267E-03   35.319  2.3453576E-01   21.187
 1.4300000E+08  2.2885473E-01   22.445  8.1212003E-04   41.825  1.5851292E-03   24.859  2.1909789E-01   19.294
 1.4400000E+08  2.1235653E-01   23.005  8.7232053E-04   40.029  1.8576055E-03   10.016  2.0311515E-01   19.140
 1.4500000E+08  1.9926074E-01   25.532  9.6476771E-04   37.876  2.0756143E-03   -0.567  1.8923358E-01   20.976
 1.4600000E+08  1.9248170E-01   29.606  1.1021090E-03   32.977  2.3223848E-03  -11.946  1.8071051E-01   24.619
 1.4700000E+08  1.9362446E-01   34.151  1.2696335E-03   28.453  2.7201475E-03  -24.390  1.7935952E-01   29.173
 1.4800000E+08  2.0219676E-01   37.901  1.4059525E-03   20.862  2.9087096E-03  -33.638  1.8541688E-01   33.277
 1.4900000E+08  2.1585976E-01   40.027  1.5841487E-03   14.149  3.2354159E-03  -44.497  1.9718297E-01   35.920
 1.5000000E+08  2.3181649E-01   40.415  1.7471464E-03    5.380  3.5149807E-03  -54.670  2.1195199E-01   36.763
 1.5100000E+08  2.4749703E-01   39.344  1.9136702E-03   -2.280  3.8025995E-03  -64.650  2.2725478E-01   35.976
 1.5200000E+08  2.6097220E-01   37.204  2.0604008E-03  -10.391  4.0300476E-03  -74.293  2.4090494E-01   33.982
 1.5300000E+08  2.7104009E-01   34.364  2.1986300E-03  -18.455  4.2862865E-03  -83.397  2.5148936E-01   31.138
 1.5400000E+08  2.7689977E-01   31.120  2.3196133E-03  -26.256  4.5459307E-03  -92.410  2.5815769E-01   27.793
 1.5500000E+08  2.7830575E-01   27.730  2.4520546E-03  -34.050  4.7984676E-03 -100.828  2.6047708E-01   24.191
 1.5600000E+08  2.7518147E-01   24.415  2.5584946E-03  -41.772  5.0502882E-03 -109.386  2.5830161E-01   20.590
 1.5700000E+08  2.6781032E-01   21.387  2.6482060E-03  -49.669  5.3166069E-03 -117.797  2.5172978E-01   17.201
 1.5800000E+08  2.5673295E-01   18.898  2.7577827E-03  -57.141  5.5968236E-03 -126.057  2.4118999E-01   14.273
 1.5900000E+08  2.4272645E-01   17.224  2.8225511E-03  -64.793  5.8812749E-03 -134.516  2.2726092E-01   12.107
 1.6000000E+08  2.2726303E-01   16.761  2.8991760E-03  -72.314  6.1981099E-03 -142.908  2.1117378E-01   11.139
 1.6100000E+08  2.1251470E-01   17.823  2.9322146E-03  -79.854  6.4761878E-03 -151.671  1.9497248E-01   11.832
 1.6200000E+08  2.0090556E-01   20.459  2.9435313E-03  -87.509  6.7642407E-03 -160.540  1.8109023E-01   14.411
 1.6300000E+08  1.9447630E-01   24.351  2.9182233E-03  -94.688  7.0300152E-03 -169.663  1.7198803E-01   18.792
 1.6400000E+08  1.9457554E-01   28.768  2.8822621E-03 -101.740  7.2820683E-03 -178.920  1.6966800E-01   24.255
 1.6500000E+08  2.0127727E-01   32.730  2.8126788E-03 -108.230  7.4786513E-03  171.725  1.7485084E-01   29.559
 1.6600000E+08  2.1335337E-01   35.478  2.7262770E-03 -114.062  7.6701003E-03  162.487  1.8653541E-01   33.538
 1.6700000E+08  2.2869785E-01   36.699  2.6285507E-03 -119.090  7.8003599E-03  153.210  2.0259134E-01   35.664
 1.6800000E+08  2.4523645E-01   36.489  2.5305171E-03 -123.199  7.8978648E-03  143.973  2.2062659E-01   36.001
 1.6900000E+08  2.6121384E-01   35.098  2.4378361E-03 -126.650  7.9573277E-03  134.967  2.3859108E-01   34.873
 1.7000000E+08  2.7524817E-01   32.811  2.3867911E-03 -129.220  8.0044769E-03  125.936  2.5499840E-01   32.647
 1.7100000E+08  2.8635381E-01   29.885  2.3805272E-03 -131.167  8.0239847E-03  117.265  2.6877021E-01   29.654
 1.7200000E+08  2.9394831E-01   26.524  2.3921044E-03 -133.195  8.0246636E-03  108.721  2.7917557E-01   26.134
 1.7300000E+08  2.9756242E-01   22.896  2.4604660E-03 -135.367  8.0350413E-03  100.439  2.8575884E-01   22.282
 1.7400000E+08  2.9710714E-01   19.148  2.5495792E-03 -138.138  8.0440767E-03   92.196  2.8830794E-01   18.249
 1.7500000E+08  2.9243931E-01   15.401  2.6756346E-03 -141.800  8.0742307E-03   84.241  2.8667578E-01   14.158
 1.7600000E+08  2.8369674E-01   11.801  2.7986468E-03 -146.122  8.1288345E-03   76.333  2.8091639E-01   10.136
 1.7700000E+08  2.7114856E-01    8.493  2.9440578E-03 -151.559  8.1854420E-03   68.431  2.7122706E-01    6.323
 1.7800000E+08  2.5522262E-01    5.682  3.0681342E-03 -157.480  8.2763409E-03   60.654  2.5791484E-01    2.867
 1.7900000E+08  2.3666533E-01    3.630  3.1624515E-03 -164.301  8.3962513E-03   52.719  2.4150402E-01   -0.016
 1.8000000E+08  2.1650161E-01    2.676  3.2734654E-03 -170.940  8.5250086E-03   44.777  2.2275616E-01   -2.053
 1.8100000E+08  1.9624998E-01    3.237  3.2980439E-03 -178.761  8.6718804E-03   36.635  2.0276725E-01   -2.887
 1.8200000E+08  1.7783947E-01    5.761  3.3158855E-03  173.321  8.8505380E-03   28.475  1.8311909E-01   -2.067
 1.8300000E+08  1.6382476E-01   10.468  3.3040472E-03  165.409  9.0120422E-03   20.112  1.6584853E-01    0.843
 1.8400000E+08  1.5659709E-01   16.919  3.2313569E-03  157.668  9.1802705E-03   11.573  1.5338016E-01    5.948
 1.8500000E+08  1.5754810E-01   23.833  3.1511400E-03  149.965  9.3176579E-03    2.881  1.4794493E-01   12.641
 1.8600000E+08  1.6613157E-01   29.662  3.0570140E-03  142.381  9.4321149E-03   -5.778  1.5048965E-01   19.444
 1.8700000E+08  1.8015580E-01   33.433  2.9348424E-03  135.109  9.5323168E-03  -14.511  1.6004804E-01   24.829
 1.8800000E+08  1.9706162E-01   35.076  2.8005731E-03  127.846  9.5955380E-03  -23.257  1.7431553E-01   28.049
 1.8900000E+08  2.1449878E-01   34.917  2.7092972E-03  121.433  9.6254895E-03  -32.032  1.9079665E-01   29.140
 1.9000000E+08  2.3085990E-01   33.415  2.6241814E-03  114.832  9.6220632E-03  -40.649  2.0742425E-01   28.508
 1.9100000E+08  2.4491365E-01   30.934  2.5450464E-03  108.119  9.5916209E-03  -49.164  2.2274851E-01   26.604
 1.9200000E+08  2.5587777E-01   27.785  2.4745344E-03  100.784  9.5288377E-03  -57.445  2.3566952E-01   23.770
 1.9300000E+08  2.6325234E-01   24.163  2.4511310E-03   93.306  9.4507840E-03  -65.700  2.4558301E-01   20.304
 1.9400000E+08  2.6675456E-01   20.232  2.4240750E-03   85.557  9.3603614E-03  -73.820  2.5196488E-01   16.383
 1.9500000E+08  2.6620014E-01   16.114  2.4146644E-03   76.879  9.2266822E-03  -81.822  2.5460610E-01   12.159
 1.9600000E+08  2.6155376E-01   11.913  2.4132409E-03   67.268  9.1021362E-03  -89.530  2.5337417E-01    7.739
 1.9700000E+08  2.5283267E-01    7.720  2.4483640E-03   56.896  8.9475229E-03  -97.180  2.4823272E-01    3.215
 1.9800000E+08  2.4018898E-01    3.643  2.4576734E-03   45.949  8.7943917E-03 -104.734  2.3922440E-01   -1.329
 1.9900000E+08  2.2384354E-01   -0.184  2.4934586E-03   34.541  8.6208838E-03 -112.113  2.2651394E-01   -5.801
 2.0000000E+08  2.0410500E-01   -3.568  2.5179520E-03   21.696  8.4414323E-03 -119.359  2.1026156E-01  -10.095
 2.0100000E+08  1.8153922E-01   -6.238  2.5715584E-03    9.176  8.2451752E-03 -126.516  1.9081260E-01  -14.054
 2.0200000E+08  1.5680248E-01   -7.697  2.6516307E-03   -4.050  8.0450250E-03 -133.517  1.6855014E-01  -17.432
 2.0300000E+08  1.3101462E-01   -7.072  2.7352415E-03  -17.372  7.8309658E-03 -140.373  1.4407143E-01  -19.815
 2.0400000E+08  1.0603297E-01   -2.838  2.8076464E-03  -31.036  7.6033007E-03 -147.049  1.1818614E-01  -20.399
 2.0500000E+08  8.5395335E-02    7.570  2.8863359E-03  -44.268  7.3683171E-03 -153.845  9.2301319E-02  -17.539
 2.0600000E+08  7.4947555E-02   25.026  2.9632351E-03  -57.859  7.1492498E-03 -160.090  6.9859745E-02   -8.261
 2.0700000E+08  7.8921861E-02   45.741  3.0637832E-03  -69.810  6.8990714E-03 -166.504  5.4880948E-02   13.153
 2.0800000E+08  9.6446427E-02   59.721  3.1261397E-03  -82.009  6.6451084E-03 -172.747  5.7728526E-02   40.872
 2.0900000E+08  1.2065312E-01   66.484  3.1856447E-03  -93.809  6.3860523E-03 -178.828  7.5663481E-02   58.434
 2.1000000E+08  1.4724499E-01   68.732  3.2165045E-03 -105.166  6.1344670E-03  175.237  1.0011456E-01   65.619
 2.1100000E+08  1.7393355E-01   68.414  3.2523558E-03 -115.836  5.8675921E-03  169.519  1.2635589E-01   67.394
 2.1200000E+08  1.9955231E-01   66.645  3.2426459E-03 -125.920  5.6030512E-03  163.897  1.5237334E-01   66.507
 2.1300000E+08  2.2338186E-01   64.026  3.2339119E-03 -135.611  5.3409730E-03  158.458  1.7713664E-01   64.216
 2.1400000E+08  2.4503368E-01   60.901  3.1904810E-03 -144.714  5.0739296E-03  153.167  2.0014170E-01   61.152
 2.1500000E+08  2.6427034E-01   57.476  3.1556592E-03 -153.025  4.8064909E-03  148.331  2.2107053E-01   57.639
 2.1600000E+08  2.8099344E-01   53.872  3.1030542E-03 -161.048  4.5587034E-03  143.479  2.3969672E-01   53.873
 2.1700000E+08  2.9513246E-01   50.180  3.0442609E-03 -168.339  4.3050427E-03  139.251  2.5594846E-01   49.968
 2.1800000E+08  3.0669092E-01   46.452  2.9801781E-03 -175.301  4.0710894E-03  135.121  2.6979120E-01   45.998
 2.1900000E+08  3.1570990E-01   42.721  2.9059425E-03  178.530  3.8323096E-03  131.276  2.8122780E-01   42.011
 2.2000000E+08  3.2228898E-01   39.013  2.8568946E-03  172.419  3.6246901E-03  128.070  2.9028386E-01   38.035
 2.2100000E+08  3.2648453E-01   35.353  2.8107150E-03  167.106  3.4222861E-03  125.054  2.9705030E-01   34.094
 2.2200000E+08  3.2838987E-01   31.749  2.7569356E-03  162.028  3.2469543E-03  122.639  3.0157729E-01   30.205
 2.2300000E+08  3.2813313E-01   28.214  2.7310146E-03  157.461  3.0984578E-03  120.689  3.0396967E-01   26.377
 2.2400000E+08  3.2579450E-01   24.760  2.6967577E-03  152.789  2.9679916E-03  118.813  3.0432460E-01   22.619
 2.2500000E+08  3.2153108E-01   21.395  2.6951080E-03  148.454  2.8765229E-03  117.428  3.0276664E-01   18.942
 2.2600000E+08  3.1545827E-01   18.136  2.6941704E-03  144.117  2.8113134E-03  116.065  2.9939792E-01   15.351
 2.2700000E+08  3.0768832E-01   14.994  2.7127974E-03  139.942  2.7752820E-03  114.827  2.9432016E-01   11.858
 2.2800000E+08  2.9837038E-01   11.983  2.7417054E-03  135.416  2.7596180E-03  113.432  2.8768115E-01    8.476
 2.2900000E+08  2.8773098E-01    9.140  2.7865189E-03  131.168  2.7644916E-03  112.491  2.7963718E-01    5.229
 2.3000000E+08  2.7595194E-01    6.400  2.8544241E-03  125.992  2.8819979E-03  109.688  2.7059699E-01    2.046
 2.3100000E+08  2.6273599E-01    3.892  2.9053366E-03  121.249  2.9126231E-03  107.454  2.5987982E-01   -0.975
 2.3200000E+08  2.4871133E-01    1.645  2.9813640E-03  116.023  2.9963012E-03  104.698  2.4823659E-01   -3.796
 2.3300000E+08  2.3402022E-01   -0.314  3.0508290E-03  110.446  3.0918596E-03  101.334  2.3581249E-01   -6.418
 2.3400000E+08  2.1892103E-01   -1.945  3.1289179E-03  104.741  3.1935487E-03   97.567  2.2274582E-01   -8.817
 2.3500000E+08  2.0358751E-01   -3.189  3.2056151E-03   98.726  3.3023507E-03   93.148  2.0922055E-01  -10.959
 2.3600000E+08  1.8825340E-01   -3.978  3.2732587E-03   92.658  3.4015996E-03   88.743  1.9541411E-01  -12.807
 2.3700000E+08  1.7320626E-01   -4.236  3.3468307E-03   86.305  3.5033096E-03   83.809  1.8150036E-01  -14.330
 2.3800000E+08  1.5864910E-01   -3.867  3.4251320E-03   79.770  3.6096614E-03   78.333  1.6764282E-01  -15.462
 2.3900000E+08  1.4487623E-01   -2.775  3.4860227E-03   73.134  3.6958680E-03   72.876  1.5403234E-01  -16.150
 2.4000000E+08  1.3214241E-01   -0.859  3.5496221E-03   66.390  3.7845551E-03   67.142  1.4083892E-01  -16.339
 2.4100000E+08  1.2071068E-01    1.966  3.6139196E-03   59.549  3.8732005E-03   61.262  1.2823638E-01  -15.962
 2.4200000E+08  1.1086777E-01    5.731  3.6668536E-03   52.760  3.9458786E-03   55.334  1.1635352E-01  -14.927
 2.4300000E+08  1.0280412E-01   10.437  3.7317663E-03   45.859  4.0254075E-03   49.253  1.0534595E-01  -13.172
 2.4400000E+08  9.6700339E-02   15.949  3.7866408E-03   39.087  4.0952921E-03   43.207  9.5326429E-02  -10.601
 2.4500000E+08  9.2600862E-02   22.041  3.8469538E-03   32.238  4.1647746E-03   37.089  8.6405060E-02   -7.155
 2.4600000E+08  9.0452637E-02   28.407  3.9001674E-03   25.343  4.2210354E-03   30.738  7.8655671E-02   -2.756
 2.4700000E+08  9.0067125E-02   34.713  3.9586322E-03   18.499  4.2920475E-03   24.487  7.2170833E-02    2.576
 2.4800000E+08  9.1215854E-02   40.733  4.0175135E-03   11.710  4.3541945E-03   18.227  6.6999667E-02    8.835
 2.4900000E+08  9.3631960E-02   46.303  4.0952375E-03    5.008  4.4350569E-03   11.972  6.3180970E-02   15.934
 2.5000000E+08  9.7115657E-02   51.348  4.1610630E-03   -1.717  4.4985876E-03    5.684  6.0739420E-02   23.663
 2.5100000E+08  1.0147524E-01   55.881  4.2222155E-03   -8.453  4.5644229E-03   -0.657  5.9752294E-02   31.831
 2.5200000E+08  1.0665120E-01   59.931  4.3079748E-03  -14.989  4.6383328E-03   -6.931  6.0227746E-02   40.072
 2.5300000E+08  1.1255738E-01   63.532  4.3866171E-03  -21.606  4.7141761E-03  -13.332  6.2166716E-02   48.065
 2.5400000E+08  1.1921870E-01   66.713  4.4763928E-03  -28.066  4.7986999E-03  -19.537  6.5574381E-02   55.504
 2.5500000E+08  1.2668999E-01   69.509  4.5672506E-03  -34.574  4.8789605E-03  -26.033  7.0422569E-02   62.176
 2.5600000E+08  1.3510832E-01   71.770  4.6472819E-03  -40.939  4.9564612E-03  -32.135  7.6901243E-02   67.731
 2.5700000E+08  1.4386808E-01   73.719  4.7606994E-03  -47.416  5.0540439E-03  -38.453  8.4161537E-02   72.318
 2.5800000E+08  1.5356951E-01   75.296  4.8539914E-03  -53.825  5.1407279E-03  -44.765  9.2744686E-02   76.039
 2.5900000E+08  1.6402648E-01   76.476  4.9566841E-03  -60.264  5.2307362E-03  -51.160  1.0239605E-01   78.838
 2.6000000E+08  1.7516472E-01   77.274  5.0446575E-03  -66.615  5.3076465E-03  -57.500  1.1298860E-01   80.831
 2.6100000E+08  1.8687621E-01   77.696  5.1422770E-03  -72.890  5.4005246E-03  -63.873  1.2432142E-01   82.095
 2.6200000E+08  1.9903050E-01   77.777  5.2372837E-03  -79.176  5.4802828E-03  -70.218  1.3631646E-01   82.732
 2.6300000E+08  2.1153107E-01   77.536  5.3172112E-03  -85.352  5.5506891E-03  -76.504  1.4875880E-01   82.828
 2.6400000E+08  2.2426006E-01   76.994  5.3942325E-03  -91.561  5.6059314E-03  -82.719  1.6155349E-01   82.466
 2.6500000E+08  2.3701652E-01   76.194  5.4620615E-03  -97.684  5.6613023E-03  -88.920  1.7452312E-01   81.714
 2.6600000E+08  2.4968615E-01   75.159  5.5237285E-03 -103.736  5.7084238E-03  -95.066  1.8751869E-01   80.630
 2.6700000E+08  2.6213821E-01   73.912  5.5823584E-03 -109.843  5.7511730E-03 -101.304  2.0038231E-01   79.269
 2.6800000E+08  2.7419965E-01   72.491  5.6141884E-03 -115.621  5.7728966E-03 -107.174  2.1302359E-01   77.672
 2.6900000E+08  2.8578708E-01   70.913  5.6505835E-03 -121.444  5.7887490E-03 -113.142  2.2525190E-01   75.885
 2.7000000E+08  2.9677211E-01   69.209  5.6679794E-03 -127.217  5.7928071E-03 -118.981  2.3700661E-01   73.938
 2.7100000E+08  3.0701306E-01   67.398  5.6716578E-03 -132.727  5.7825005E-03 -124.638  2.4812440E-01   71.859
 2.7200000E+08  3.1647544E-01   65.496  5.6810965E-03 -138.209  5.7775242E-03 -130.226  2.5854080E-01   69.674
 2.7300000E+08  3.2503065E-01   63.526  5.6745628E-03 -143.565  5.7616769E-03 -135.678  2.6813824E-01   67.410
 2.7400000E+08  3.3262091E-01   61.504  5.6619041E-03 -148.738  5.7307499E-03 -140.995  2.7687687E-01   65.079
 2.7500000E+08  3.3921914E-01   59.441  5.6315120E-03 -153.787  5.6935387E-03 -146.154  2.8468480E-01   62.702
 2.7600000E+08  3.4473131E-01   57.352  5.5943209E-03 -158.684  5.6484840E-03 -151.135  2.9146380E-01   60.292
 2.7700000E+08  3.4914790E-01   55.252  5.5589865E-03 -163.385  5.6045310E-03 -155.967  2.9721921E-01   57.863
 2.7800000E+08  3.5243563E-01   53.150  5.5237625E-03 -168.058  5.5650901E-03 -160.712  3.0187901E-01   55.430
 2.7900000E+08  3.5458493E-01   51.059  5.4937915E-03 -172.422  5.5262751E-03 -165.255  3.0543749E-01   53.000
 2.8000000E+08  3.5554668E-01   48.994  5.4516946E-03 -176.738  5.4791254E-03 -169.657  3.0783349E-01   50.589
 2.8100000E+08  3.5533172E-01   46.963  5.4246269E-03  179.216  5.4449358E-03 -173.841  3.0910080E-01   48.211
 2.8200000E+08  3.5394532E-01   44.991  5.4127554E-03  175.173  5.4171572E-03 -177.878  3.0916596E-01   45.881
 2.8300000E+08  3.5141411E-01   43.120  5.4339721E-03  170.738  5.3955376E-03  178.122  3.0809547E-01   43.651
 2.8400000E+08  3.4887863E-01   41.364  5.1090889E-03  165.918  5.3702956E-03  173.973  3.0681208E-01   41.532
 2.8500000E+08  3.4452521E-01   39.407  5.3080482E-03  165.259  5.3592412E-03  170.427  3.0409329E-01   39.205
 2.8600000E+08  3.3857186E-01   37.706  5.3576859E-03  160.983  5.3618605E-03  166.748  2.9960847E-01   37.085
 2.8700000E+08  3.3184597E-01   36.165  5.3812566E-03  157.233  5.3842084E-03  163.129  2.9421131E-01   35.119
 2.8800000E+08  3.2433586E-01   34.778  5.4155855E-03  153.628  5.4176275E-03  159.422  2.8792267E-01   33.297
 2.8900000E+08  3.1609824E-01   33.570  5.4652135E-03  150.156  5.4669831E-03  155.822  2.8080640E-01   31.638
 2.9000000E+08  3.0725445E-01   32.567  5.5263440E-03  146.509  5.5291559E-03  152.029  2.7291765E-01   30.165
 2.9100000E+08  2.9794872E-01   31.800  5.6066943E-03  142.900  5.6029506E-03  148.226  2.6437909E-01   28.916
 2.9200000E+08  2.8838669E-01   31.305  5.6945729E-03  139.182  5.6892788E-03  144.320  2.5534373E-01   27.921
 2.9300000E+08  2.7874555E-01   31.110  5.7954515E-03  135.266  5.7894017E-03  140.212  2.4595112E-01   27.222
 2.9400000E+08  2.6933464E-01   31.249  5.9112369E-03  131.257  5.8941562E-03  136.038  2.3645333E-01   26.868
 2.9500000E+08  2.6036052E-01   31.741  6.0264746E-03  127.074  6.0022005E-03  131.756  2.2705104E-01   26.893
 2.9600000E+08  2.5214400E-01   32.594  6.1510995E-03  122.667  6.1172547E-03  127.133  2.1800397E-01   27.333
 2.9700000E+08  2.4496145E-01   33.804  6.2758514E-03  118.243  6.2395464E-03  122.523  2.0961891E-01   28.214
 2.9800000E+08  2.3911643E-01   35.342  6.3943848E-03  113.514  6.3474537E-03  117.608  2.0217732E-01   29.546
 2.9900000E+08  2.3479137E-01   37.141  6.5188911E-03  108.732  6.4634070E-03  112.693  1.9599049E-01   31.300
 3.0000000E+08  2.3220783E-01   39.124  6.6428893E-03  103.697  6.5708883E-03  107.585  1.9130921E-01   33.420
 3.0100000E+08  2.3144372E-01   41.188  6.7440829E-03   98.725  6.6568160E-03  102.387  1.8836855E-01   35.803
 3.0200000E+08  2.3249561E-01   43.220  6.8358591E-03   93.498  6.7430010E-03   97.048  1.8728346E-01   38.326
 3.0300000E+08  2.3526975E-01   45.117  6.9187373E-03   88.197  6.8145304E-03   91.588  1.8808739E-01   40.836
 3.0400000E+08  2.3957340E-01   46.789  6.9884793E-03   82.881  6.8672234E-03   86.121  1.9068486E-01   43.183
 3.0500000E+08  2.4518262E-01   48.171  7.0497702E-03   77.506  6.9221995E-03   80.620  1.9487494E-01   45.253
 3.0600000E+08  2.5180957E-01   49.230  7.0909062E-03   72.015  6.9451651E-03   75.044  2.0044101E-01   46.955
 3.0700000E+08  2.5915916E-01   49.954  7.1260402E-03   66.583  6.9723025E-03   69.520  2.0704833E-01   48.245
 3.0800000E+08  2.6693814E-01   50.346  7.1338814E-03   61.127  6.9702763E-03   63.944  2.1441232E-01   49.109
 3.0900000E+08  2.7488973E-01   50.427  7.1378013E-03   55.751  6.9658709E-03   58.434  2.2221493E-01   49.567
 3.1000000E+08  2.8273791E-01   50.221  7.1371417E-03   50.350  6.9461577E-03   52.972  2.3020119E-01   49.639
 3.1100000E+08  2.9028097E-01   49.769  7.1140021E-03   45.018  6.9186417E-03   47.589  2.3809137E-01   49.373
 3.1200000E+08  2.9732524E-01   49.098  7.0900676E-03   39.793  6.8887707E-03   42.272  2.4566364E-01   48.805
 3.1300000E+08  3.0367959E-01   48.247  7.0550274E-03   34.555  6.8479486E-03   36.961  2.5272650E-01   47.984
 3.1400000E+08  3.0919547E-01   47.248  7.0115233E-03   29.535  6.7982055E-03   31.866  2.5907008E-01   46.953
 3.1500000E+08  3.1374569E-01   46.141  6.9616599E-03   24.490  6.7506214E-03   26.835  2.6454822E-01   45.760
 3.1600000E+08  3.1720409E-01   44.993  6.9146775E-03   19.613  6.7084828E-03   21.930  2.6897890E-01   44.482